TITLE     = "fluent12.0.16"
VARIABLES = "X"
"Y"
"X Velocity"
"Y Velocity"
GEOMETRY
F=POINT
CS=GRID
X=0,Y=0,Z=0
C=BLACK 
S=LOCAL
L=SOLID
PL=2
LT=0.1
CLIPPING=CLIPTOVIEWPORT
DRAWORDER=AFTERDATA
MFC=""
AST=PLAIN
T=LINE
DT=SINGLE 
1
2
0.0599999986589 0
0.0599999986589 0.11060000211
GEOMETRY
F=POINT
CS=GRID
X=0,Y=0,Z=0
C=BLACK 
S=LOCAL
L=SOLID
PL=2
LT=0.1
CLIPPING=CLIPTOVIEWPORT
DRAWORDER=AFTERDATA
MFC=""
AST=PLAIN
T=LINE
DT=SINGLE 
1
2
0.119999997318 0
0.119999997318 0.12120000273
GEOMETRY
F=POINT
CS=GRID
X=0,Y=0,Z=0
C=BLACK 
S=LOCAL
L=SOLID
PL=2
LT=0.1
CLIPPING=CLIPTOVIEWPORT
DRAWORDER=AFTERDATA
MFC=""
AST=PLAIN
T=LINE
DT=SINGLE 
1
2
0.180000007153 0
0.180000007153 0.131799995899
GEOMETRY
F=POINT
CS=GRID
X=0,Y=0,Z=0
C=BLACK 
S=LOCAL
L=SOLID
PL=2
LT=0.1
CLIPPING=CLIPTOVIEWPORT
DRAWORDER=AFTERDATA
MFC=""
AST=PLAIN
T=LINE
DT=SINGLE 
1
2
0.239999994636 0
0.239999994636 0.142399996519
GEOMETRY
F=POINT
CS=GRID
X=0,Y=0,Z=0
C=BLACK 
S=LOCAL
L=SOLID
PL=2
LT=0.1
CLIPPING=CLIPTOVIEWPORT
DRAWORDER=AFTERDATA
MFC=""
AST=PLAIN
T=LINE
DT=SINGLE 
1
2
0.300000011921 0
0.300000011921 0.152999997139
GEOMETRY
F=POINT
CS=GRID
X=0,Y=0,Z=0
C=BLACK 
S=LOCAL
L=SOLID
PL=2
LT=0.1
CLIPPING=CLIPTOVIEWPORT
DRAWORDER=AFTERDATA
MFC=""
AST=PLAIN
T=LINE
DT=SINGLE 
1
2
0.439999997616 0
0.439999997616 0.177699998021
GEOMETRY
F=POINT
CS=GRID
X=0,Y=0,Z=0
C=BLACK 
S=LOCAL
L=SOLID
PL=2
LT=0.1
CLIPPING=CLIPTOVIEWPORT
DRAWORDER=AFTERDATA
MFC=""
AST=PLAIN
T=LINE
DT=SINGLE 
1
2
0.579999983311 0
0.579999983311 0.202500000596
GEOMETRY
F=POINT
CS=GRID
X=0,Y=0,Z=0
C=BLACK 
S=LOCAL
L=SOLID
PL=2
LT=0.1
CLIPPING=CLIPTOVIEWPORT
DRAWORDER=AFTERDATA
MFC=""
AST=PLAIN
T=LINE
DT=SINGLE 
1
2
0.72000002861 0
0.72000002861 0.227200001478
GEOMETRY
F=POINT
CS=GRID
X=0,Y=0,Z=0
C=BLACK 
S=LOCAL
L=SOLID
PL=2
LT=0.1
CLIPPING=CLIPTOVIEWPORT
DRAWORDER=AFTERDATA
MFC=""
AST=PLAIN
T=LINE
DT=SINGLE 
1
2
0.860000014305 0
0.860000014305 0.251899987459
GEOMETRY
F=POINT
CS=GRID
X=0,Y=0,Z=0
C=BLACK 
S=LOCAL
L=SOLID
PL=2
LT=0.1
CLIPPING=CLIPTOVIEWPORT
DRAWORDER=AFTERDATA
MFC=""
AST=PLAIN
T=LINE
DT=SINGLE 
1
2
1 0
1 0.134499996901
DATASETAUXDATA Common.DensityVar="10"
DATASETAUXDATA Common.PressureVar="3"
DATASETAUXDATA Common.TurbulentDynamicViscosityVar="12"
DATASETAUXDATA Common.TurbulentKineticEnergyVar="8"
DATASETAUXDATA Common.UVar="4"
DATASETAUXDATA Common.VectorVarsAreVelocity="TRUE"
DATASETAUXDATA Common.ViscosityVar="11"
DATASETAUXDATA Common.VVar="5"
ZONE T="Extracted Points"
 STRANDID=6, SOLUTIONTIME=0
 I=49, J=1, K=1, ZONETYPE=Ordered
 DATAPACKING=POINT
 DT=(DOUBLE DOUBLE DOUBLE DOUBLE )
 5.999999866E-02 0.000000000E+00 3.732774622E+01 1.199701399E-02
 5.999999866E-02 2.257142900E-03 3.430387128E+01 6.578026582E-01
 5.999999866E-02 4.514285800E-03 2.717038367E+01 8.986982157E-01
 5.999999866E-02 6.771428701E-03 1.895442543E+01 6.655338393E-01
 5.999999866E-02 9.028571601E-03 1.144963376E+01 1.116245968E-01
 5.999999866E-02 1.128571450E-02 5.521442905E+00 -5.539129385E-01
 5.999999866E-02 1.354285740E-02 1.532433721E+00 -1.119943961E+00
 5.999999866E-02 1.580000030E-02 -8.457745945E-02 -1.299918766E+00
 5.999999866E-02 1.805714320E-02 -1.876692541E-01 -1.155217716E+00
 5.999999866E-02 2.031428610E-02 -1.903150898E-01 -1.019084733E+00
 5.999999866E-02 2.257142900E-02 -1.952242686E-01 -9.110096981E-01
 5.999999866E-02 2.482857190E-02 -2.008965614E-01 -8.225562416E-01
 5.999999866E-02 2.708571480E-02 -2.063184049E-01 -7.485745857E-01
 5.999999866E-02 2.934285770E-02 -2.114172556E-01 -6.858331855E-01
 5.999999866E-02 3.160000060E-02 -2.161913540E-01 -6.317632664E-01
 5.999999866E-02 3.385714350E-02 -2.206397819E-01 -5.846587927E-01
 5.999999866E-02 3.611428640E-02 -2.247662369E-01 -5.431443488E-01
 5.999999866E-02 3.837142930E-02 -2.285618178E-01 -5.063028885E-01
 5.999999866E-02 4.062857220E-02 -2.320163485E-01 -4.733574812E-01
 5.999999866E-02 4.288571510E-02 -2.351258857E-01 -4.436578056E-01
 5.999999866E-02 4.514285800E-02 -2.378854940E-01 -4.166666230E-01
 5.999999866E-02 4.740000090E-02 -2.402934687E-01 -3.919223962E-01
 5.999999866E-02 4.965714380E-02 -2.423362242E-01 -3.691208240E-01
 5.999999866E-02 5.191428670E-02 -2.439775026E-01 -3.480120949E-01
 5.999999866E-02 5.417142960E-02 -2.452144970E-01 -3.283392375E-01
 5.999999866E-02 5.642857251E-02 -2.459856154E-01 -3.100213090E-01
 5.999999866E-02 5.868571541E-02 -2.463055200E-01 -2.927511342E-01
 5.999999866E-02 6.094285831E-02 -2.461447981E-01 -2.763992109E-01
 5.999999866E-02 6.320000121E-02 -2.454592467E-01 -2.608288246E-01
 5.999999866E-02 6.545714411E-02 -2.442446327E-01 -2.459112448E-01
 5.999999866E-02 6.771428701E-02 -2.425904277E-01 -2.315864107E-01
 5.999999866E-02 6.997142991E-02 -2.404082150E-01 -2.177226993E-01
 5.999999866E-02 7.222857281E-02 -2.375952338E-01 -2.042219716E-01
 5.999999866E-02 7.448571571E-02 -2.340552549E-01 -1.909950805E-01
 5.999999866E-02 7.674285861E-02 -2.296191205E-01 -1.779702956E-01
 5.999999866E-02 7.900000151E-02 -2.242224349E-01 -1.650525194E-01
 5.999999866E-02 8.125714441E-02 -2.176718608E-01 -1.521684122E-01
 5.999999866E-02 8.351428731E-02 -2.098075357E-01 -1.392373606E-01
 5.999999866E-02 8.577143021E-02 -2.004436163E-01 -1.261879747E-01
 5.999999866E-02 8.802857311E-02 -1.893178777E-01 -1.129494901E-01
 5.999999866E-02 9.028571601E-02 -1.762285833E-01 -9.947869936E-02
 5.999999866E-02 9.254285891E-02 -1.608591094E-01 -8.574534944E-02
 5.999999866E-02 9.480000181E-02 -1.429727147E-01 -7.177790410E-02
 5.999999866E-02 9.705714471E-02 -1.223198275E-01 -5.767089957E-02
 5.999999866E-02 9.931428761E-02 -9.878465308E-02 -4.362280813E-02
 5.999999866E-02 1.015714305E-01 -7.230332628E-02 -2.995384192E-02
 5.999999866E-02 1.038285734E-01 -4.278865593E-02 -1.705633568E-02
 5.999999866E-02 1.060857163E-01 -9.392714837E-03 -5.273161648E-03
 5.999999866E-02 1.083428592E-01 2.353564786E-02 3.824891147E-03
ZONE T="Extracted Points"
 STRANDID=7, SOLUTIONTIME=0
 I=49, J=1, K=1, ZONETYPE=Ordered
 DATAPACKING=POINT
 DT=(DOUBLE DOUBLE DOUBLE DOUBLE )
 1.199999973E-01 0.000000000E+00 1.797139100E+01 3.641256409E-03
 1.199999973E-01 2.473469443E-03 1.754625565E+01 1.868304299E-01
 1.199999973E-01 4.946938887E-03 1.636277950E+01 3.361526376E-01
 1.199999973E-01 7.420408330E-03 1.463776158E+01 4.234915796E-01
 1.199999973E-01 9.893877774E-03 1.260850600E+01 4.405491542E-01
 1.199999973E-01 1.236734722E-02 1.047230672E+01 3.913897224E-01
 1.199999973E-01 1.484081666E-02 8.372300432E+00 2.870959364E-01
 1.199999973E-01 1.731428610E-02 6.410644057E+00 1.425998940E-01
 1.199999973E-01 1.978775555E-02 4.649672728E+00 -2.577498496E-02
 1.199999973E-01 2.226122499E-02 3.130012187E+00 -2.022940237E-01
 1.199999973E-01 2.473469443E-02 1.876165117E+00 -3.709835540E-01
 1.199999973E-01 2.720816388E-02 8.997202733E-01 -5.160665607E-01
 1.199999973E-01 2.968163332E-02 2.303395702E-01 -6.175402858E-01
 1.199999973E-01 3.215510277E-02 -1.200601655E-01 -6.557843383E-01
 1.199999973E-01 3.462857221E-02 -2.358681086E-01 -6.399930754E-01
 1.199999973E-01 3.710204165E-02 -2.703979678E-01 -6.063923280E-01
 1.199999973E-01 3.957551110E-02 -2.864465766E-01 -5.718631796E-01
 1.199999973E-01 4.204898054E-02 -2.977765792E-01 -5.399796430E-01
 1.199999973E-01 4.452244998E-02 -3.060648852E-01 -5.106571879E-01
 1.199999973E-01 4.699591943E-02 -3.129130130E-01 -4.837023674E-01
 1.199999973E-01 4.946938887E-02 -3.190136601E-01 -4.588862951E-01
 1.199999973E-01 5.194285831E-02 -3.246421522E-01 -4.360269133E-01
 1.199999973E-01 5.441632776E-02 -3.299058286E-01 -4.149495442E-01
 1.199999973E-01 5.688979720E-02 -3.349068817E-01 -3.952751869E-01
 1.199999973E-01 5.936326664E-02 -3.396445415E-01 -3.769364422E-01
 1.199999973E-01 6.183673609E-02 -3.441413285E-01 -3.597628478E-01
 1.199999973E-01 6.431020553E-02 -3.485609229E-01 -3.435369574E-01
 1.199999973E-01 6.678367497E-02 -3.530621919E-01 -3.281874414E-01
 1.199999973E-01 6.925714442E-02 -3.574973274E-01 -3.135784836E-01
 1.199999973E-01 7.173061386E-02 -3.617781427E-01 -2.996001690E-01
 1.199999973E-01 7.420408330E-02 -3.658187550E-01 -2.861710472E-01
 1.199999973E-01 7.667755275E-02 -3.695695607E-01 -2.732195902E-01
 1.199999973E-01 7.915102219E-02 -3.729791672E-01 -2.606722450E-01
 1.199999973E-01 8.162449163E-02 -3.759737249E-01 -2.484740093E-01
 1.199999973E-01 8.409796108E-02 -3.785215577E-01 -2.365414720E-01
 1.199999973E-01 8.657143052E-02 -3.805385287E-01 -2.248187434E-01
 1.199999973E-01 8.904489996E-02 -3.819566839E-01 -2.132411713E-01
 1.199999973E-01 9.151836941E-02 -3.826571990E-01 -2.017455368E-01
 1.199999973E-01 9.399183885E-02 -3.825068642E-01 -1.902628028E-01
 1.199999973E-01 9.646530830E-02 -3.813245104E-01 -1.787142783E-01
 1.199999973E-01 9.893877774E-02 -3.789126308E-01 -1.670200508E-01
 1.199999973E-01 1.014122472E-01 -3.748958182E-01 -1.550668572E-01
 1.199999973E-01 1.038857166E-01 -3.688281418E-01 -1.427245903E-01
 1.199999973E-01 1.063591861E-01 -3.599875845E-01 -1.298074052E-01
 1.199999973E-01 1.088326555E-01 -3.472351501E-01 -1.160488333E-01
 1.199999973E-01 1.113061250E-01 -3.285194387E-01 -1.010068588E-01
 1.199999973E-01 1.137795944E-01 -2.997868959E-01 -8.388362665E-02
 1.199999973E-01 1.162530638E-01 -2.512271984E-01 -6.291554059E-02
 1.199999973E-01 1.187265333E-01 -1.485055909E-01 -3.252232725E-02
ZONE T="Extracted Points"
 STRANDID=8, SOLUTIONTIME=0
 I=50, J=1, K=1, ZONETYPE=Ordered
 DATAPACKING=POINT
 DT=(DOUBLE DOUBLE DOUBLE DOUBLE )
 1.800000072E-01 0.000000000E+00 1.176939032E+01 1.936695316E-03
 1.800000072E-01 2.689795835E-03 1.162543918E+01 9.009630624E-02
 1.800000072E-01 5.379591669E-03 1.120789064E+01 1.705728213E-01
 1.800000072E-01 8.069387504E-03 1.056222055E+01 2.338591085E-01
 1.800000072E-01 1.075918334E-02 9.745229771E+00 2.751340697E-01
 1.800000072E-01 1.344897917E-02 8.815212995E+00 2.924787230E-01
 1.800000072E-01 1.613877501E-02 7.824091976E+00 2.862684794E-01
 1.800000072E-01 1.882857084E-02 6.814247943E+00 2.583416985E-01
 1.800000072E-01 2.151836668E-02 5.819667223E+00 2.119013648E-01
 1.800000072E-01 2.420816251E-02 4.865180813E+00 1.504132854E-01
 1.800000072E-01 2.689795835E-02 3.969552359E+00 7.779974782E-02
 1.800000072E-01 2.958775418E-02 3.146417068E+00 -1.864583017E-03
 1.800000072E-01 3.227755002E-02 2.404410352E+00 -8.470615501E-02
 1.800000072E-01 3.496734585E-02 1.749889229E+00 -1.668000754E-01
 1.800000072E-01 3.765714169E-02 1.186239606E+00 -2.444875965E-01
 1.800000072E-01 4.034693752E-02 7.217010191E-01 -3.134882569E-01
 1.800000072E-01 4.303673335E-02 3.529680548E-01 -3.704522814E-01
 1.800000072E-01 4.572652919E-02 8.433231053E-02 -4.111920450E-01
 1.800000072E-01 4.841632502E-02 -9.127614352E-02 -4.337212494E-01
 1.800000072E-01 5.110612086E-02 -1.966137680E-01 -4.405304490E-01
 1.800000072E-01 5.379591669E-02 -2.585060641E-01 -4.367672984E-01
 1.800000072E-01 5.648571253E-02 -2.965317392E-01 -4.269769144E-01
 1.800000072E-01 5.917550836E-02 -3.235873124E-01 -4.146545894E-01
 1.800000072E-01 6.186530420E-02 -3.449569722E-01 -4.012797152E-01
 1.800000072E-01 6.455510003E-02 -3.628271089E-01 -3.875699770E-01
 1.800000072E-01 6.724489587E-02 -3.789138812E-01 -3.739719758E-01
 1.800000072E-01 6.993469170E-02 -3.937212574E-01 -3.606328771E-01
 1.800000072E-01 7.262448754E-02 -4.074548267E-01 -3.476115796E-01
 1.800000072E-01 7.531428337E-02 -4.204887615E-01 -3.349453105E-01
 1.800000072E-01 7.800407921E-02 -4.329385005E-01 -3.226299324E-01
 1.800000072E-01 8.069387504E-02 -4.448928474E-01 -3.106487846E-01
 1.800000072E-01 8.338367088E-02 -4.563995889E-01 -2.989680017E-01
 1.800000072E-01 8.607346671E-02 -4.674850183E-01 -2.875518454E-01
 1.800000072E-01 8.876326254E-02 -4.781725534E-01 -2.763659442E-01
 1.800000072E-01 9.145305838E-02 -4.884116723E-01 -2.653711927E-01
 1.800000072E-01 9.414285421E-02 -4.982231743E-01 -2.545287316E-01
 1.800000072E-01 9.683265005E-02 -5.075507408E-01 -2.438035122E-01
 1.800000072E-01 9.952244588E-02 -5.163531960E-01 -2.331528332E-01
 1.800000072E-01 1.022122417E-01 -5.245537795E-01 -2.225361985E-01
 1.800000072E-01 1.049020376E-01 -5.320579718E-01 -2.119075142E-01
 1.800000072E-01 1.075918334E-01 -5.387181057E-01 -2.012138929E-01
 1.800000072E-01 1.102816292E-01 -5.443378211E-01 -1.903896470E-01
 1.800000072E-01 1.129714251E-01 -5.486094800E-01 -1.793509513E-01
 1.800000072E-01 1.156612209E-01 -5.510738534E-01 -1.679817735E-01
 1.800000072E-01 1.183510167E-01 -5.509236550E-01 -1.561003391E-01
 1.800000072E-01 1.210408126E-01 -5.467186262E-01 -1.434029821E-01
 1.800000072E-01 1.237306084E-01 -5.353564704E-01 -1.292759192E-01
 1.800000072E-01 1.264204042E-01 -5.082375328E-01 -1.120972299E-01
 1.800000072E-01 1.291102001E-01 -4.245560101E-01 -8.449607421E-02
 1.800000072E-01 1.317999959E-01 -1.499864449E-02 -2.718924638E-03
ZONE T="Extracted Points"
 STRANDID=9, SOLUTIONTIME=0
 I=50, J=1, K=1, ZONETYPE=Ordered
 DATAPACKING=POINT
 DT=(DOUBLE DOUBLE DOUBLE DOUBLE )
 2.399999946E-01 0.000000000E+00 8.714948131E+00 1.274877884E-03
 2.399999946E-01 2.906122378E-03 8.645135205E+00 5.455841075E-02
 2.399999946E-01 5.812244756E-03 8.440746373E+00 1.054116757E-01
 2.399999946E-01 8.718367134E-03 8.116523042E+00 1.491670301E-01
 2.399999946E-01 1.162448951E-02 7.692922844E+00 1.834124088E-01
 2.399999946E-01 1.453061189E-02 7.193131609E+00 2.066590853E-01
 2.399999946E-01 1.743673427E-02 6.639649738E+00 2.183208201E-01
 2.399999946E-01 2.034285665E-02 6.052698689E+00 2.183980836E-01
 2.399999946E-01 2.324897902E-02 5.450386265E+00 2.076958534E-01
 2.399999946E-01 2.615510140E-02 4.846917473E+00 1.871269715E-01
 2.399999946E-01 2.906122378E-02 4.254264182E+00 1.580828292E-01
 2.399999946E-01 3.196734616E-02 3.681971335E+00 1.219841006E-01
 2.399999946E-01 3.487346854E-02 3.136857963E+00 8.037795312E-02
 2.399999946E-01 3.777959091E-02 2.625204435E+00 3.477077522E-02
 2.399999946E-01 4.068571329E-02 2.151548016E+00 -1.321358501E-02
 2.399999946E-01 4.359183567E-02 1.718252239E+00 -6.201529840E-02
 2.399999946E-01 4.649795805E-02 1.328603660E+00 -1.101006358E-01
 2.399999946E-01 4.940408042E-02 9.834855536E-01 -1.559994035E-01
 2.399999946E-01 5.231020280E-02 6.854173662E-01 -1.982162277E-01
 2.399999946E-01 5.521632518E-02 4.342784860E-01 -2.353782570E-01
 2.399999946E-01 5.812244756E-02 2.281794293E-01 -2.664563564E-01
 2.399999946E-01 6.102856994E-02 6.534087928E-02 -2.905231863E-01
 2.399999946E-01 6.393469231E-02 -6.092063164E-02 -3.077137283E-01
 2.399999946E-01 6.684081469E-02 -1.588032724E-01 -3.189064851E-01
 2.399999946E-01 6.974693707E-02 -2.343377794E-01 -3.249108203E-01
 2.399999946E-01 7.265305945E-02 -2.936712233E-01 -3.267554437E-01
 2.399999946E-01 7.555918183E-02 -3.430108809E-01 -3.258626251E-01
 2.399999946E-01 7.846530420E-02 -3.839426611E-01 -3.226202532E-01
 2.399999946E-01 8.137142658E-02 -4.192040702E-01 -3.177912435E-01
 2.399999946E-01 8.427754896E-02 -4.502073567E-01 -3.118108777E-01
 2.399999946E-01 8.718367134E-02 -4.778197981E-01 -3.049587035E-01
 2.399999946E-01 9.008979372E-02 -5.028062036E-01 -2.974878875E-01
 2.399999946E-01 9.299591609E-02 -5.258299248E-01 -2.896159904E-01
 2.399999946E-01 9.590203847E-02 -5.473590259E-01 -2.814860992E-01
 2.399999946E-01 9.880816085E-02 -5.676581671E-01 -2.731752758E-01
 2.399999946E-01 1.017142832E-01 -5.869128254E-01 -2.647463603E-01
 2.399999946E-01 1.046204056E-01 -6.052769690E-01 -2.562295642E-01
 2.399999946E-01 1.075265280E-01 -6.228239523E-01 -2.476503811E-01
 2.399999946E-01 1.104326504E-01 -6.395611609E-01 -2.390007468E-01
 2.399999946E-01 1.133387727E-01 -6.555046858E-01 -2.302815355E-01
 2.399999946E-01 1.162448951E-01 -6.706275631E-01 -2.214785985E-01
 2.399999946E-01 1.191510175E-01 -6.848149163E-01 -2.125562173E-01
 2.399999946E-01 1.220571399E-01 -6.979256665E-01 -2.034765448E-01
 2.399999946E-01 1.249632623E-01 -7.096457010E-01 -1.941623780E-01
 2.399999946E-01 1.278693846E-01 -7.194776188E-01 -1.844993503E-01
 2.399999946E-01 1.307755070E-01 -7.263980389E-01 -1.742729008E-01
 2.399999946E-01 1.336816294E-01 -7.281693458E-01 -1.630352678E-01
 2.399999946E-01 1.365877518E-01 -7.184383709E-01 -1.495792442E-01
 2.399999946E-01 1.394938741E-01 -6.654025389E-01 -1.280853279E-01
 2.399999946E-01 1.423999965E-01 -3.708109087E-02 -6.575142903E-03
ZONE T="Extracted Points"
 STRANDID=10, SOLUTIONTIME=0
 I=50, J=1, K=1, ZONETYPE=Ordered
 DATAPACKING=POINT
 DT=(DOUBLE DOUBLE DOUBLE DOUBLE )
 3.000000119E-01 0.000000000E+00 6.887300219E+00 9.474518997E-04
 3.000000119E-01 3.122448921E-03 6.846521503E+00 3.790274817E-02
 3.000000119E-01 6.244897842E-03 6.726283325E+00 7.397480683E-02
 3.000000119E-01 9.367346764E-03 6.533052841E+00 1.064121697E-01
 3.000000119E-01 1.248979568E-02 6.276302135E+00 1.338664235E-01
 3.000000119E-01 1.561224461E-02 5.967136125E+00 1.553725503E-01
 3.000000119E-01 1.873469353E-02 5.616900498E+00 1.703170102E-01
 3.000000119E-01 2.185714245E-02 5.236943239E+00 1.785386116E-01
 3.000000119E-01 2.497959137E-02 4.837291645E+00 1.800704023E-01
 3.000000119E-01 2.810204029E-02 4.427023849E+00 1.753109661E-01
 3.000000119E-01 3.122448921E-02 4.013545894E+00 1.646463538E-01
 3.000000119E-01 3.434693813E-02 3.603457478E+00 1.487237380E-01
 3.000000119E-01 3.746938705E-02 3.202029238E+00 1.283006762E-01
 3.000000119E-01 4.059183598E-02 2.813888702E+00 1.040974199E-01
 3.000000119E-01 4.371428490E-02 2.442445606E+00 7.686061733E-02
 3.000000119E-01 4.683673382E-02 2.090555488E+00 4.745002739E-02
 3.000000119E-01 4.995918274E-02 1.760999576E+00 1.658283922E-02
 3.000000119E-01 5.308163166E-02 1.454974223E+00 -1.486679019E-02
 3.000000119E-01 5.620408058E-02 1.174671141E+00 -4.618900543E-02
 3.000000119E-01 5.932652950E-02 9.208962389E-01 -7.657555039E-02
 3.000000119E-01 6.244897842E-02 6.935853550E-01 -1.053767726E-01
 3.000000119E-01 6.557142735E-02 4.924698902E-01 -1.319685528E-01
 3.000000119E-01 6.869387627E-02 3.179867681E-01 -1.557089920E-01
 3.000000119E-01 7.181632519E-02 1.670602354E-01 -1.763678063E-01
 3.000000119E-01 7.493877411E-02 3.683277639E-02 -1.939290716E-01
 3.000000119E-01 7.806122303E-02 -7.296851076E-02 -2.080499863E-01
 3.000000119E-01 8.118367195E-02 -1.679702037E-01 -2.193179930E-01
 3.000000119E-01 8.430612087E-02 -2.500214730E-01 -2.279198337E-01
 3.000000119E-01 8.742856979E-02 -3.201178952E-01 -2.339003019E-01
 3.000000119E-01 9.055101871E-02 -3.812997096E-01 -2.378443729E-01
 3.000000119E-01 9.367346764E-02 -4.348121970E-01 -2.399933717E-01
 3.000000119E-01 9.679591656E-02 -4.818315936E-01 -2.406219016E-01
 3.000000119E-01 9.991836548E-02 -5.233889308E-01 -2.399770572E-01
 3.000000119E-01 1.030408144E-01 -5.605817324E-01 -2.383266926E-01
 3.000000119E-01 1.061632633E-01 -5.943740147E-01 -2.358966020E-01
 3.000000119E-01 1.092857122E-01 -6.254063705E-01 -2.328456843E-01
 3.000000119E-01 1.124081612E-01 -6.543273569E-01 -2.293389061E-01
 3.000000119E-01 1.155306101E-01 -6.814236824E-01 -2.254535908E-01
 3.000000119E-01 1.186530590E-01 -7.069649138E-01 -2.212638418E-01
 3.000000119E-01 1.217755079E-01 -7.311294750E-01 -2.168143421E-01
 3.000000119E-01 1.248979568E-01 -7.540519608E-01 -2.121462305E-01
 3.000000119E-01 1.280204058E-01 -7.757803587E-01 -2.072731051E-01
 3.000000119E-01 1.311428547E-01 -7.963139644E-01 -2.021988830E-01
 3.000000119E-01 1.342653036E-01 -8.155307456E-01 -1.968986528E-01
 3.000000119E-01 1.373877525E-01 -8.331339664E-01 -1.913094749E-01
 3.000000119E-01 1.405102015E-01 -8.484883732E-01 -1.853044377E-01
 3.000000119E-01 1.436326504E-01 -8.599998881E-01 -1.785678588E-01
 3.000000119E-01 1.467550993E-01 -8.630694221E-01 -1.702320172E-01
 3.000000119E-01 1.498775482E-01 -8.341670716E-01 -1.559909722E-01
 3.000000119E-01 1.529999971E-01 -6.189384731E-02 -1.100581976E-02
ZONE T="Extracted Points"
 STRANDID=11, SOLUTIONTIME=0
 I=50, J=1, K=1, ZONETYPE=Ordered
 DATAPACKING=POINT
 DT=(DOUBLE DOUBLE DOUBLE DOUBLE )
 4.399999976E-01 0.000000000E+00 4.434067427E+00 6.672443785E-04
 4.399999976E-01 3.626530572E-03 4.416429738E+00 2.378138674E-02
 4.399999976E-01 7.253061144E-03 4.364082753E+00 4.699089066E-02
 4.399999976E-01 1.087959172E-02 4.278794124E+00 6.895363359E-02
 4.399999976E-01 1.450612229E-02 4.163359505E+00 8.917549261E-02
 4.399999976E-01 1.813265286E-02 4.021208061E+00 1.072337661E-01
 4.399999976E-01 2.175918343E-02 3.855963935E+00 1.227885096E-01
 4.399999976E-01 2.538571400E-02 3.671820574E+00 1.356479716E-01
 4.399999976E-01 2.901224457E-02 3.472467388E+00 1.456574063E-01
 4.399999976E-01 3.263877515E-02 3.261645095E+00 1.527742229E-01
 4.399999976E-01 3.626530572E-02 3.042962445E+00 1.570536628E-01
 4.399999976E-01 3.989183629E-02 2.819531100E+00 1.585993670E-01
 4.399999976E-01 4.351836686E-02 2.594014612E+00 1.574741904E-01
 4.399999976E-01 4.714489743E-02 2.369055018E+00 1.539315321E-01
 4.399999976E-01 5.077142801E-02 2.146831825E+00 1.481648853E-01
 4.399999976E-01 5.439795858E-02 1.929159739E+00 1.404241045E-01
 4.399999976E-01 5.802448915E-02 1.717784520E+00 1.308968928E-01
 4.399999976E-01 6.165101972E-02 1.513919110E+00 1.199606149E-01
 4.399999976E-01 6.527755029E-02 1.318910310E+00 1.077585339E-01
 4.399999976E-01 6.890408087E-02 1.133351507E+00 9.463502562E-02
 4.399999976E-01 7.253061144E-02 9.578231070E-01 8.082452315E-02
 4.399999976E-01 7.615714201E-02 7.926879974E-01 6.656373488E-02
 4.399999976E-01 7.978367258E-02 6.380927844E-01 5.208187713E-02
 4.399999976E-01 8.341020315E-02 4.939653851E-01 3.757665838E-02
 4.399999976E-01 8.703673372E-02 3.608838441E-01 2.323642808E-02
 4.399999976E-01 9.066326430E-02 2.379448880E-01 9.241428953E-03
 4.399999976E-01 9.428979487E-02 1.253311291E-01 -4.252809504E-03
 4.399999976E-01 9.791632544E-02 2.198461415E-02 -1.724017489E-02
 4.399999976E-01 1.015428560E-01 -7.264263778E-02 -2.961947997E-02
 4.399999976E-01 1.051693866E-01 -1.585137153E-01 -4.130693521E-02
 4.399999976E-01 1.087959172E-01 -2.360281164E-01 -5.224708589E-02
 4.399999976E-01 1.124224477E-01 -3.061180774E-01 -6.245488942E-02
 4.399999976E-01 1.160489783E-01 -3.694578360E-01 -7.193558789E-02
 4.399999976E-01 1.196755089E-01 -4.269131957E-01 -8.072376505E-02
 4.399999976E-01 1.233020394E-01 -4.792363037E-01 -8.886198047E-02
 4.399999976E-01 1.269285700E-01 -5.271025688E-01 -9.640110004E-02
 4.399999976E-01 1.305551006E-01 -5.712570993E-01 -1.034299631E-01
 4.399999976E-01 1.341816312E-01 -6.119807157E-01 -1.099714235E-01
 4.399999976E-01 1.378081617E-01 -6.498102940E-01 -1.161009152E-01
 4.399999976E-01 1.414346923E-01 -6.850690270E-01 -1.218664100E-01
 4.399999976E-01 1.450612229E-01 -7.180262585E-01 -1.273086284E-01
 4.399999976E-01 1.486877534E-01 -7.489344325E-01 -1.324717166E-01
 4.399999976E-01 1.523142840E-01 -7.779664367E-01 -1.373847617E-01
 4.399999976E-01 1.559408146E-01 -8.052546999E-01 -1.420680314E-01
 4.399999976E-01 1.595673452E-01 -8.308378354E-01 -1.465317299E-01
 4.399999976E-01 1.631938757E-01 -8.545344808E-01 -1.507380338E-01
 4.399999976E-01 1.668204063E-01 -8.756796356E-01 -1.545626834E-01
 4.399999976E-01 1.704469369E-01 -8.919050076E-01 -1.575695750E-01
 4.399999976E-01 1.740734674E-01 -8.903156970E-01 -1.574306922E-01
 4.399999976E-01 1.776999980E-01 -1.011255673E-01 -1.849947739E-02
ZONE T="Extracted Points"
 STRANDID=12, SOLUTIONTIME=0
 I=49, J=1, K=1, ZONETYPE=Ordered
 DATAPACKING=POINT
 DT=(DOUBLE DOUBLE DOUBLE DOUBLE )
 5.799999833E-01 0.000000000E+00 2.845938374E+00 6.206020637E-04
 5.799999833E-01 4.132653073E-03 2.836304697E+00 2.044703236E-02
 5.799999833E-01 8.265306147E-03 2.807649745E+00 4.058224193E-02
 5.799999833E-01 1.239795922E-02 2.760814841E+00 5.996601731E-02
 5.799999833E-01 1.653061229E-02 2.697067215E+00 7.830210104E-02
 5.799999833E-01 2.066326537E-02 2.617995924E+00 9.531413837E-02
 5.799999833E-01 2.479591844E-02 2.525340799E+00 1.107694530E-01
 5.799999833E-01 2.892857151E-02 2.421098847E+00 1.245014406E-01
 5.799999833E-01 3.306122459E-02 2.307135008E+00 1.363774726E-01
 5.799999833E-01 3.719387766E-02 2.185310070E+00 1.463178608E-01
 5.799999833E-01 4.132653073E-02 2.057547546E+00 1.543084452E-01
 5.799999833E-01 4.545918381E-02 1.925475178E+00 1.603581413E-01
 5.799999833E-01 4.959183688E-02 1.790613791E+00 1.644890426E-01
 5.799999833E-01 5.372448995E-02 1.654353934E+00 1.667937814E-01
 5.799999833E-01 5.785714303E-02 1.517980414E+00 1.673454807E-01
 5.799999833E-01 6.198979610E-02 1.382568317E+00 1.662507314E-01
 5.799999833E-01 6.612244917E-02 1.249149948E+00 1.636653652E-01
 5.799999833E-01 7.025510225E-02 1.118587858E+00 1.596607454E-01
 5.799999833E-01 7.438775532E-02 9.917063447E-01 1.544464595E-01
 5.799999833E-01 7.852040839E-02 8.692218335E-01 1.481233098E-01
 5.799999833E-01 8.265306147E-02 7.518027885E-01 1.408367831E-01
 5.799999833E-01 8.678571454E-02 6.397236411E-01 1.327428186E-01
 5.799999833E-01 9.091836761E-02 5.332371912E-01 1.239735721E-01
 5.799999833E-01 9.505102069E-02 4.325708540E-01 1.146150281E-01
 5.799999833E-01 9.918367376E-02 3.377503175E-01 1.048152428E-01
 5.799999833E-01 1.033163268E-01 2.485959699E-01 9.468913982E-02
 5.799999833E-01 1.074489799E-01 1.654798127E-01 8.434214477E-02
 5.799999833E-01 1.115816330E-01 8.825249338E-02 7.386167241E-02
 5.799999833E-01 1.157142861E-01 1.586927906E-02 6.328521191E-02
 5.799999833E-01 1.198469391E-01 -5.100289555E-02 5.271348114E-02
 5.799999833E-01 1.239795922E-01 -1.129925787E-01 4.221124715E-02
 5.799999833E-01 1.281122453E-01 -1.703823163E-01 3.182531764E-02
 5.799999833E-01 1.322448983E-01 -2.234826866E-01 2.158596450E-02
 5.799999833E-01 1.363775514E-01 -2.726077008E-01 1.151529608E-02
 5.799999833E-01 1.405102045E-01 -3.180794789E-01 1.627016000E-03
 5.799999833E-01 1.446428576E-01 -3.602223704E-01 -8.074872868E-03
 5.799999833E-01 1.487755106E-01 -3.991791270E-01 -1.758120208E-02
 5.799999833E-01 1.529081637E-01 -4.353667049E-01 -2.690447678E-02
 5.799999833E-01 1.570408168E-01 -4.689570226E-01 -3.604787046E-02
 5.799999833E-01 1.611734699E-01 -5.001541282E-01 -4.501871408E-02
 5.799999833E-01 1.653061229E-01 -5.291829304E-01 -5.382861934E-02
 5.799999833E-01 1.694387760E-01 -5.562556760E-01 -6.249113299E-02
 5.799999833E-01 1.735714291E-01 -5.815059406E-01 -7.101444511E-02
 5.799999833E-01 1.777040822E-01 -6.050839273E-01 -7.940802416E-02
 5.799999833E-01 1.818367352E-01 -6.270727369E-01 -8.767354355E-02
 5.799999833E-01 1.859693883E-01 -6.474403576E-01 -9.579340315E-02
 5.799999833E-01 1.901020414E-01 -6.658552101E-01 -1.036969028E-01
 5.799999833E-01 1.942346944E-01 -6.808956761E-01 -1.111174414E-01
 5.799999833E-01 1.983673475E-01 -6.840283525E-01 -1.165169201E-01
ZONE T="Extracted Points"
 STRANDID=13, SOLUTIONTIME=0
 I=50, J=1, K=1, ZONETYPE=Ordered
 DATAPACKING=POINT
 DT=(DOUBLE DOUBLE DOUBLE DOUBLE )
 7.200000286E-01 0.000000000E+00 1.631214522E+00 5.430489880E-04
 7.200000286E-01 4.636734724E-03 1.626616737E+00 1.691378491E-02
 7.200000286E-01 9.273469448E-03 1.612901948E+00 3.363994478E-02
 7.200000286E-01 1.391020417E-02 1.590362208E+00 4.986814759E-02
 7.200000286E-01 1.854693890E-02 1.559440254E+00 6.540438956E-02
 7.200000286E-01 2.318367362E-02 1.520699567E+00 8.005973039E-02
 7.200000286E-01 2.782040834E-02 1.474804333E+00 9.366787835E-02
 7.200000286E-01 3.245714307E-02 1.422492781E+00 1.060951041E-01
 7.200000286E-01 3.709387779E-02 1.364556020E+00 1.172350673E-01
 7.200000286E-01 4.173061252E-02 1.301801595E+00 1.270175886E-01
 7.200000286E-01 4.636734724E-02 1.235006350E+00 1.353891886E-01
 7.200000286E-01 5.100408196E-02 1.164920281E+00 1.423123420E-01
 7.200000286E-01 5.564081669E-02 1.092369037E+00 1.478053460E-01
 7.200000286E-01 6.027755141E-02 1.018035072E+00 1.518743133E-01
 7.200000286E-01 6.491428614E-02 9.426625842E-01 1.545622471E-01
 7.200000286E-01 6.955102086E-02 8.668799814E-01 1.559186173E-01
 7.200000286E-01 7.418775558E-02 7.913404536E-01 1.560092487E-01
 7.200000286E-01 7.882449031E-02 7.165655161E-01 1.548727201E-01
 7.200000286E-01 8.346122503E-02 6.431451912E-01 1.526410558E-01
 7.200000286E-01 8.809795976E-02 5.715228025E-01 1.493978901E-01
 7.200000286E-01 9.273469448E-02 5.020306663E-01 1.451979868E-01
 7.200000286E-01 9.737142920E-02 4.349525517E-01 1.401716650E-01
 7.200000286E-01 1.020081639E-01 3.704523879E-01 1.344127667E-01
 7.200000286E-01 1.066448987E-01 3.087353117E-01 1.279954950E-01
 7.200000286E-01 1.112816334E-01 2.499118275E-01 1.210108683E-01
 7.200000286E-01 1.159183681E-01 1.940074018E-01 1.135646102E-01
 7.200000286E-01 1.205551028E-01 1.410123753E-01 1.057432642E-01
 7.200000286E-01 1.251918375E-01 9.138562698E-02 9.758050040E-02
 7.200000286E-01 1.298285723E-01 4.432563817E-02 8.917180114E-02
 7.200000286E-01 1.344653070E-01 -1.899886692E-06 8.055558892E-02
 7.200000286E-01 1.391020417E-01 -4.161347608E-02 7.178941618E-02
 7.200000286E-01 1.437387764E-01 -8.065834909E-02 6.293369404E-02
 7.200000286E-01 1.483755112E-01 -1.172445873E-01 5.402344675E-02
 7.200000286E-01 1.530122459E-01 -1.514841468E-01 4.509528858E-02
 7.200000286E-01 1.576489806E-01 -1.835066863E-01 3.618164527E-02
 7.200000286E-01 1.622857153E-01 -2.134598900E-01 2.730899941E-02
 7.200000286E-01 1.669224501E-01 -2.414346479E-01 1.849904376E-02
 7.200000286E-01 1.715591848E-01 -2.675944615E-01 9.771533290E-03
 7.200000286E-01 1.761959195E-01 -2.920358825E-01 1.141472835E-03
 7.200000286E-01 1.808326542E-01 -3.149030346E-01 -7.378689723E-03
 7.200000286E-01 1.854693890E-01 -3.363107004E-01 -1.577964247E-02
 7.200000286E-01 1.901061237E-01 -3.563497538E-01 -2.405404526E-02
 7.200000286E-01 1.947428584E-01 -3.751471910E-01 -3.219680073E-02
 7.200000286E-01 1.993795931E-01 -3.927887539E-01 -4.020258866E-02
 7.200000286E-01 2.040163279E-01 -4.093340388E-01 -4.806380926E-02
 7.200000286E-01 2.086530626E-01 -4.247956151E-01 -5.576401994E-02
 7.200000286E-01 2.132897973E-01 -4.389960257E-01 -6.325415510E-02
 7.200000286E-01 2.179265320E-01 -4.510604356E-01 -7.035829077E-02
 7.200000286E-01 2.225632668E-01 -4.553198783E-01 -7.604015522E-02
 7.200000286E-01 2.272000015E-01 -3.725848743E-02 -7.276093059E-03
ZONE T="Extracted Points"
 STRANDID=14, SOLUTIONTIME=0
 I=50, J=1, K=1, ZONETYPE=Ordered
 DATAPACKING=POINT
 DT=(DOUBLE DOUBLE DOUBLE DOUBLE )