TITLE     = "fluent12.0.16"
VARIABLES = "X"
"Y"
"X Velocity"
"Y Velocity"
GEOMETRY
F=POINT
CS=GRID
X=0,Y=0,Z=0
C=BLACK 
S=LOCAL
L=SOLID
PL=2
LT=0.1
CLIPPING=CLIPTOVIEWPORT
DRAWORDER=AFTERDATA
MFC=""
AST=PLAIN
T=LINE
DT=SINGLE 
1
2
0.0599999986589 0
0.0599999986589 0.11060000211
GEOMETRY
F=POINT
CS=GRID
X=0,Y=0,Z=0
C=BLACK 
S=LOCAL
L=SOLID
PL=2
LT=0.1
CLIPPING=CLIPTOVIEWPORT
DRAWORDER=AFTERDATA
MFC=""
AST=PLAIN
T=LINE
DT=SINGLE 
1
2
0.119999997318 0
0.119999997318 0.12120000273
GEOMETRY
F=POINT
CS=GRID
X=0,Y=0,Z=0
C=BLACK 
S=LOCAL
L=SOLID
PL=2
LT=0.1
CLIPPING=CLIPTOVIEWPORT
DRAWORDER=AFTERDATA
MFC=""
AST=PLAIN
T=LINE
DT=SINGLE 
1
2
0.180000007153 0
0.180000007153 0.131799995899
GEOMETRY
F=POINT
CS=GRID
X=0,Y=0,Z=0
C=BLACK 
S=LOCAL
L=SOLID
PL=2
LT=0.1
CLIPPING=CLIPTOVIEWPORT
DRAWORDER=AFTERDATA
MFC=""
AST=PLAIN
T=LINE
DT=SINGLE 
1
2
0.239999994636 0
0.239999994636 0.142399996519
GEOMETRY
F=POINT
CS=GRID
X=0,Y=0,Z=0
C=BLACK 
S=LOCAL
L=SOLID
PL=2
LT=0.1
CLIPPING=CLIPTOVIEWPORT
DRAWORDER=AFTERDATA
MFC=""
AST=PLAIN
T=LINE
DT=SINGLE 
1
2
0.300000011921 0
0.300000011921 0.152999997139
GEOMETRY
F=POINT
CS=GRID
X=0,Y=0,Z=0
C=BLACK 
S=LOCAL
L=SOLID
PL=2
LT=0.1
CLIPPING=CLIPTOVIEWPORT
DRAWORDER=AFTERDATA
MFC=""
AST=PLAIN
T=LINE
DT=SINGLE 
1
2
0.439999997616 0
0.439999997616 0.177699998021
GEOMETRY
F=POINT
CS=GRID
X=0,Y=0,Z=0
C=BLACK 
S=LOCAL
L=SOLID
PL=2
LT=0.1
CLIPPING=CLIPTOVIEWPORT
DRAWORDER=AFTERDATA
MFC=""
AST=PLAIN
T=LINE
DT=SINGLE 
1
2
0.579999983311 0
0.579999983311 0.202500000596
GEOMETRY
F=POINT
CS=GRID
X=0,Y=0,Z=0
C=BLACK 
S=LOCAL
L=SOLID
PL=2
LT=0.1
CLIPPING=CLIPTOVIEWPORT
DRAWORDER=AFTERDATA
MFC=""
AST=PLAIN
T=LINE
DT=SINGLE 
1
2
0.72000002861 0
0.72000002861 0.227200001478
GEOMETRY
F=POINT
CS=GRID
X=0,Y=0,Z=0
C=BLACK 
S=LOCAL
L=SOLID
PL=2
LT=0.1
CLIPPING=CLIPTOVIEWPORT
DRAWORDER=AFTERDATA
MFC=""
AST=PLAIN
T=LINE
DT=SINGLE 
1
2
0.860000014305 0
0.860000014305 0.251899987459
GEOMETRY
F=POINT
CS=GRID
X=0,Y=0,Z=0
C=BLACK 
S=LOCAL
L=SOLID
PL=2
LT=0.1
CLIPPING=CLIPTOVIEWPORT
DRAWORDER=AFTERDATA
MFC=""
AST=PLAIN
T=LINE
DT=SINGLE 
1
2
1 0
1 0.134499996901
DATASETAUXDATA Common.DensityVar="10"
DATASETAUXDATA Common.PressureVar="3"
DATASETAUXDATA Common.TurbulentDynamicViscosityVar="12"
DATASETAUXDATA Common.TurbulentKineticEnergyVar="8"
DATASETAUXDATA Common.UVar="4"
DATASETAUXDATA Common.VectorVarsAreVelocity="TRUE"
DATASETAUXDATA Common.ViscosityVar="11"
DATASETAUXDATA Common.VVar="5"
ZONE T="Extracted Points"
 STRANDID=6, SOLUTIONTIME=0
 I=49, J=1, K=1, ZONETYPE=Ordered
 DATAPACKING=POINT
 DT=(DOUBLE DOUBLE DOUBLE DOUBLE )
 5.999999866E-02 0.000000000E+00 3.732774622E+01 1.199701399E-02
 5.999999866E-02 2.257142900E-03 3.430387128E+01 6.578026582E-01
 5.999999866E-02 4.514285800E-03 2.717038367E+01 8.986982157E-01
 5.999999866E-02 6.771428701E-03 1.895442543E+01 6.655338393E-01
 5.999999866E-02 9.028571601E-03 1.144963376E+01 1.116245968E-01
 5.999999866E-02 1.128571450E-02 5.521442905E+00 -5.539129385E-01
 5.999999866E-02 1.354285740E-02 1.532433721E+00 -1.119943961E+00
 5.999999866E-02 1.580000030E-02 -8.457745945E-02 -1.299918766E+00
 5.999999866E-02 1.805714320E-02 -1.876692541E-01 -1.155217716E+00
 5.999999866E-02 2.031428610E-02 -1.903150898E-01 -1.019084733E+00
 5.999999866E-02 2.257142900E-02 -1.952242686E-01 -9.110096981E-01
 5.999999866E-02 2.482857190E-02 -2.008965614E-01 -8.225562416E-01
 5.999999866E-02 2.708571480E-02 -2.063184049E-01 -7.485745857E-01
 5.999999866E-02 2.934285770E-02 -2.114172556E-01 -6.858331855E-01
 5.999999866E-02 3.160000060E-02 -2.161913540E-01 -6.317632664E-01
 5.999999866E-02 3.385714350E-02 -2.206397819E-01 -5.846587927E-01
 5.999999866E-02 3.611428640E-02 -2.247662369E-01 -5.431443488E-01
 5.999999866E-02 3.837142930E-02 -2.285618178E-01 -5.063028885E-01
 5.999999866E-02 4.062857220E-02 -2.320163485E-01 -4.733574812E-01
 5.999999866E-02 4.288571510E-02 -2.351258857E-01 -4.436578056E-01
 5.999999866E-02 4.514285800E-02 -2.378854940E-01 -4.166666230E-01
 5.999999866E-02 4.740000090E-02 -2.402934687E-01 -3.919223962E-01
 5.999999866E-02 4.965714380E-02 -2.423362242E-01 -3.691208240E-01
 5.999999866E-02 5.191428670E-02 -2.439775026E-01 -3.480120949E-01
 5.999999866E-02 5.417142960E-02 -2.452144970E-01 -3.283392375E-01
 5.999999866E-02 5.642857251E-02 -2.459856154E-01 -3.100213090E-01
 5.999999866E-02 5.868571541E-02 -2.463055200E-01 -2.927511342E-01
 5.999999866E-02 6.094285831E-02 -2.461447981E-01 -2.763992109E-01
 5.999999866E-02 6.320000121E-02 -2.454592467E-01 -2.608288246E-01
 5.999999866E-02 6.545714411E-02 -2.442446327E-01 -2.459112448E-01
 5.999999866E-02 6.771428701E-02 -2.425904277E-01 -2.315864107E-01
 5.999999866E-02 6.997142991E-02 -2.404082150E-01 -2.177226993E-01
 5.999999866E-02 7.222857281E-02 -2.375952338E-01 -2.042219716E-01
 5.999999866E-02 7.448571571E-02 -2.340552549E-01 -1.909950805E-01
 5.999999866E-02 7.674285861E-02 -2.296191205E-01 -1.779702956E-01
 5.999999866E-02 7.900000151E-02 -2.242224349E-01 -1.650525194E-01
 5.999999866E-02 8.125714441E-02 -2.176718608E-01 -1.521684122E-01
 5.999999866E-02 8.351428731E-02 -2.098075357E-01 -1.392373606E-01
 5.999999866E-02 8.577143021E-02 -2.004436163E-01 -1.261879747E-01
 5.999999866E-02 8.802857311E-02 -1.893178777E-01 -1.129494901E-01
 5.999999866E-02 9.028571601E-02 -1.762285833E-01 -9.947869936E-02
 5.999999866E-02 9.254285891E-02 -1.608591094E-01 -8.574534944E-02
 5.999999866E-02 9.480000181E-02 -1.429727147E-01 -7.177790410E-02
 5.999999866E-02 9.705714471E-02 -1.223198275E-01 -5.767089957E-02
 5.999999866E-02 9.931428761E-02 -9.878465308E-02 -4.362280813E-02
 5.999999866E-02 1.015714305E-01 -7.230332628E-02 -2.995384192E-02
 5.999999866E-02 1.038285734E-01 -4.278865593E-02 -1.705633568E-02
 5.999999866E-02 1.060857163E-01 -9.392714837E-03 -5.273161648E-03
 5.999999866E-02 1.083428592E-01 2.353564786E-02 3.824891147E-03
